5
Lattice="2.7057783200000003 0.0 0.0 0.0 3.1063144100000004 0.0 0.0 0.0 3.68835714" Properties=species:S:1:pos:R:3:forces:R:3 energy=-39.980966533717975 pbc="F F F"
C        1.20813614       1.08903322       1.63777680       0.08684024      -0.02105959      -0.04317731
H        2.40390794       1.78485954       0.10000000      -0.03373476      -0.01442360       0.03959538
H        1.13223015       2.13523584       3.58835714      -0.05975229       0.04679312      -0.01366192
H        0.10000000       3.00631441       3.44933218       0.06237026      -0.05000995       0.00846041
H        2.60577832       0.10000000       1.58427658      -0.05572187       0.03869900       0.00878862
5
Lattice="2.71339044 0.0 0.0 0.0 3.38164896 0.0 0.0 0.0 1.5766726400000002" Properties=species:S:1:pos:R:3:forces:R:3 energy=-40.00215330819545 pbc="F F F"
C        1.71007917       1.81310156       1.03935798      -0.03581802      -0.00420251      -0.00715774
H        2.54559922       0.10000000       0.27374503      -0.02522427       0.05106136       0.01209057
H        2.61339044       3.28164896       0.86001059      -0.04816886      -0.06129081       0.00255791
H        0.10000000       2.32321973       0.10000000       0.03800681      -0.01462905       0.01424250
H        0.14984947       1.44296180       1.47667264       0.07119975       0.02906308      -0.02173035
5
Lattice="1.9289881500000001 0.0 0.0 0.0 1.9012490000000002 0.0 0.0 0.0 1.9797524600000003" Properties=species:S:1:pos:R:3:forces:R:3 energy=-40.162633179637886 pbc="F F F"
C        0.62434359       1.63322282       0.43006698       0.03954604      -0.03785495       0.12845920
H        0.95722867       0.54925727       0.10000000      -0.00597917       0.01901968       0.00171141
H        0.10000000       1.59026808       1.79177453       0.00401968      -0.02081200      -0.05300654
H        1.82898815       1.80124900       1.45286992      -0.04225164      -0.00621005      -0.05479458
H        0.23815245       0.10000000       1.87975246       0.00466503       0.04585622      -0.02236699
5
Lattice="3.9469073100000003 0.0 0.0 0.0 0.70561252 0.0 0.0 0.0 3.0971166100000005" Properties=species:S:1:pos:R:3:forces:R:3 energy=-40.05741178712736 pbc="F F F"
C        1.55622423       0.33670765       1.42483353      -0.02020558       0.00578527      -0.01205522
H        1.30089078       0.60561252       0.10506857      -0.00774637      -0.00887173       0.05818907
H        0.10000000       0.30527926       2.99711661       0.02139532       0.00354455      -0.04152617
H        3.53504756       0.18739331       0.10000000      -0.06694156       0.01991136      -0.12786000
H        3.84690731       0.10000000       0.64107463       0.07350032      -0.02037076       0.12325628
5
Lattice="1.7450815000000002 0.0 0.0 0.0 3.91882608 0.0 0.0 0.0 3.00867262" Properties=species:S:1:pos:R:3:forces:R:3 energy=-39.97640753252454 pbc="F F F"
C        0.39689992       1.69499865       1.01319516      -0.00325596       0.01078149      -0.00704364
H        1.01182272       3.81882608       0.56928965      -0.00323661      -0.04016751       0.01469093
H        1.33920639       1.13592748       0.10000000      -0.01184942       0.00590776      -0.00091958
H        0.10000000       0.10000000       2.90867262       0.01245512       0.02264775      -0.02281180
H        1.64508150       0.89567847       0.86882315       0.00588517       0.00083060       0.01608475
5
Lattice="2.13290069 0.0 0.0 0.0 3.0219314300000004 0.0 0.0 0.0 3.74881276" Properties=species:S:1:pos:R:3:forces:R:3 energy=-39.85813464001072 pbc="F F F"
C        0.10000000       0.87364258       2.27271599       0.05947598       0.00017917      -0.00399024
H        0.10478340       1.08164052       0.10000000       0.03568862      -0.02427688       0.03032011
H        1.13252523       2.92193143       3.64881276      -0.01076123      -0.02116640      -0.01804469
H        2.03290069       0.13621181       2.87579103      -0.04339384       0.01499643      -0.01928659
H        1.49059394       0.10000000       0.36930607      -0.04100791       0.03026594       0.01100149
5
Lattice="2.74181933 0.0 0.0 0.0 3.0855587 0.0 0.0 0.0 3.15235797" Properties=species:S:1:pos:R:3:forces:R:3 energy=-39.91113795869916 pbc="F F F"
C        1.32217880       0.60437203       1.48787957       0.00379752       0.02841689       0.01028278
H        2.47368782       0.10000000       1.82288149      -0.04816696       0.02183275      -0.04199307
H        2.33576509       2.98555870       0.10000000      -0.00622956      -0.01677267       0.01108383
H        0.10000000       1.13936944       0.32472166       0.06269059      -0.02095481       0.03518304
H        2.64181933       2.73504144       3.05235797      -0.01209401      -0.01251840      -0.01455684
5
Lattice="1.4569181400000002 0.0 0.0 0.0 3.11131123 0.0 0.0 0.0 3.5976640100000004" Properties=species:S:1:pos:R:3:forces:R:3 energy=-40.07530319624516 pbc="F F F"
C        0.84620190       1.60398495       3.02642413      -0.00309198       0.01652409      -0.00883107
H        0.10000000       0.10000000       2.86058307       0.02592362       0.08171406       0.01524411
H        1.35691814       1.82819152       2.07637571       0.01128867      -0.01833120      -0.01352266
H        0.57057181       2.16473369       0.10000000      -0.00203760      -0.00123582       0.01611238
H        1.00836952       3.01131123       3.49766401      -0.03208501      -0.07866851      -0.00900092
5
Lattice="4.353124919999999 0.0 0.0 0.0 2.48074917 0.0 0.0 0.0 2.01960708" Properties=species:S:1:pos:R:3:forces:R:3 energy=-39.96913117210104 pbc="F F F"
C        1.51680996       1.61888903       1.91960708      -0.03707154      -0.02664730       0.00716224
H        4.25312492       2.38074917       1.15577955      -0.03091641      -0.02125968      -0.01498490
H        2.86922702       1.07386993       0.10000000       0.01109644       0.01591445       0.01811511
H        0.10000000       2.24462081       1.83208754       0.05945733      -0.03608312      -0.01093340
H        1.47321888       0.10000000       1.63246409      -0.00256984       0.06808033       0.00064471
5
Lattice="2.7325758600000003 0.0 0.0 0.0 2.8043992300000005 0.0 0.0 0.0 2.6192335800000004" Properties=species:S:1:pos:R:3:forces:R:3 energy=-39.77064845719067 pbc="F F F"
C        1.84682537       0.44925518       1.58082340      -0.58922365       0.24223399      -0.80727130
H        0.61300267       2.70439923       1.50946513       0.02239964      -0.02081939       0.00011026
H        0.10000000       0.71228257       2.51923358       0.05539032      -0.01925031      -0.03968973
H        2.63257586       0.10000000       0.10000000      -0.05008227       0.01964200       0.07249128
H        2.24481268       0.27811563       2.13252641       0.56152063      -0.22179756       0.77435051
5
Lattice="4.216567039999999 0.0 0.0 0.0 2.0939973 0.0 0.0 0.0 3.4375266800000004" Properties=species:S:1:pos:R:3:forces:R:3 energy=-39.93810169487282 pbc="F F F"
C        1.65684426       1.41735261       2.34666911      -0.04048397      -0.01774024      -0.02826727
H        2.72963921       1.99399730       3.33752668       0.03217453      -0.01140704      -0.02698178
H        0.10000000       1.72817555       1.67787567       0.06093505       0.00187894       0.02437072
H        4.11656704       1.87267564       3.19746034      -0.04590482       0.01158495       0.00605020
H        2.42892547       0.10000000       0.10000000      -0.00671816       0.01568170       0.02482865
5
Lattice="3.2576073800000005 0.0 0.0 0.0 1.8492356400000003 0.0 0.0 0.0 1.9486614600000003" Properties=species:S:1:pos:R:3:forces:R:3 energy=-40.13281294262697 pbc="F F F"
C        1.05794118       0.87230139       0.56060652      -0.02510677      -0.06309882       0.06385833
H        2.26675036       0.10000000       0.75153664      -0.06937198       0.06128717      -0.02237771
H        3.15760738       1.34426675       1.84866146      -0.02530886      -0.00222261      -0.01044652
H        0.27957042       1.74923564       0.10000000       0.06155328      -0.03143242       0.01839814
H        0.10000000       0.25920068       1.56076408       0.05823170       0.03546811      -0.04942785
5
Lattice="3.3291554700000003 0.0 0.0 0.0 4.336443599999999 0.0 0.0 0.0 2.35485376" Properties=species:S:1:pos:R:3:forces:R:3 energy=-39.84701333251446 pbc="F F F"
C        1.63222965       2.43264286       1.84034180      -0.02985367       0.00302160      -0.02016528
H        0.35793897       0.10000000       2.25485376       0.01393017       0.02468114      -0.00751737
H        2.78904319       4.23644360       0.34370334       0.01951292      -0.07686220      -0.01271146
H        3.22915547       2.95471324       0.10000000      -0.02519684       0.06850619       0.01785346
H        0.10000000       3.78075548       0.37910317       0.02160756      -0.01934823       0.02254030
5
Lattice="1.8996934900000002 0.0 0.0 0.0 3.1627578100000004 0.0 0.0 0.0 5.05668878" Properties=species:S:1:pos:R:3:forces:R:3 energy=-39.85632767237392 pbc="F F F"
C        0.15972134       1.30279701       2.54232393       0.04671999       0.02490554       0.00901849
H        1.79969349       3.06275781       3.50586529      -0.01556347      -0.02621489      -0.01569138
H        1.38945191       1.92529494       2.14482242      -0.03418427      -0.00532176       0.00864259
H        1.24167196       1.34982856       0.10000000      -0.00087716      -0.00304623       0.02203227
H        0.10000000       0.10000000       4.95668878       0.00390629       0.00967838      -0.02399655
5
Lattice="3.05776189 0.0 0.0 0.0 3.110768 0.0 0.0 0.0 3.2697235100000004" Properties=species:S:1:pos:R:3:forces:R:3 energy=-39.899405317804195 pbc="F F F"
C        2.28093782       2.40568520       1.25560019      -0.01812824      -0.04063659       0.00543032
H        2.16066909       0.10000000       0.10000000      -0.00061326       0.03182242       0.01437110
H        2.95776189       0.43178496       3.16972351      -0.00748012       0.01939342      -0.01636956
H        0.10000000       2.57062937       2.08400157       0.04061988       0.02068258      -0.04732632
H        0.68248958       3.01076800       1.24135172      -0.01439576      -0.03126554       0.04389435
5
Lattice="3.9011204200000003 0.0 0.0 0.0 3.6254504 0.0 0.0 0.0 3.0078477" Properties=species:S:1:pos:R:3:forces:R:3 energy=-39.87557357195553 pbc="F F F"
C        2.54612768       1.33234976       1.40850672       0.09321120      -0.04963376      -0.06107646
H        3.70689428       1.45041067       0.10000000      -0.04473639       0.00408507       0.04498657
H        0.10000000       2.02231817       1.80005800       0.01858282       0.01966223       0.01526332
H        3.80112042       0.10000000       1.32046757      -0.04567532       0.03922544       0.01131149
H        1.71701821       3.52545040       2.90784770      -0.02138536      -0.01333369      -0.01048441
5
Lattice="1.8607163300000003 0.0 0.0 0.0 2.4385796500000003 0.0 0.0 0.0 4.693871799999999" Properties=species:S:1:pos:R:3:forces:R:3 energy=-39.885843533033594 pbc="F F F"
C        0.54544672       0.32130733       2.96440815       0.01690845       0.06843893       0.00964443
H        0.10000000       1.90042603       2.66833322       0.02308734      -0.05854267       0.02607556
H        1.76071633       2.33857965       3.90265022      -0.01384605      -0.02640352      -0.01055612
H        0.93726679       0.52330139       0.10000000       0.00100261      -0.00320777       0.01991572
H        1.66124852       0.10000000       4.59387180      -0.02714974       0.01972065      -0.04507725
5
Lattice="4.305463199999999 0.0 0.0 0.0 3.0827586900000004 0.0 0.0 0.0 1.23438576" Properties=species:S:1:pos:R:3:forces:R:3 energy=-39.982511211009474 pbc="F F F"
C        1.77375155       1.47483131       0.10000000      -0.06035420       0.02931188       0.02402176
H        3.21848350       2.45931878       0.57274366       0.05561035       0.00012422       0.01268868
H        0.10000000       0.10000000       1.13438576       0.02921781       0.02352759      -0.01570795
H        4.20546320       2.54707705       0.83627343      -0.06344183      -0.00520463      -0.01379567
H        0.57670798       2.98275869       0.35409138       0.03896649      -0.04775759      -0.00720686
5
Lattice="1.8992429600000003 0.0 0.0 0.0 2.15695834 0.0 0.0 0.0 4.08535606" Properties=species:S:1:pos:R:3:forces:R:3 energy=-39.95823031450562 pbc="F F F"
C        0.10000000       2.01118602       2.02362225       0.04654834      -0.03490375      -0.04161397
H        0.84497614       2.05695834       0.94254922      -0.01887122       0.01903149       0.03885663
H        1.08337527       0.10000000       1.48038074      -0.01922404       0.02744917      -0.02867889
H        1.79924296       1.31822697       3.98535606      -0.01322680       0.00560609      -0.02437472
H        0.75211994       0.84790731       0.10000000       0.00477031      -0.01717926       0.05580946
5
Lattice="5.626909789999999 0.0 0.0 0.0 1.5794242900000002 0.0 0.0 0.0 2.88852178" Properties=species:S:1:pos:R:3:forces:R:3 energy=-39.81502427081314 pbc="F F F"
C        2.93124215       1.07067320       1.07983437      -0.01713934      -0.01631593       0.03091329
H        0.86159373       1.47942429       0.10000000       0.00598117      -0.02389940       0.03269793
H        0.10000000       0.44377084       1.53349330       0.02637549       0.01691978      -0.02126249
H        1.85316092       0.10000000       2.78852178       0.01207895       0.01990993      -0.03772222
H        5.52690979       0.53196912       1.28353872      -0.02729349       0.00338813      -0.00462639
5
Lattice="3.3513477099999998 0.0 0.0 0.0 2.7779002700000004 0.0 0.0 0.0 1.89134335" Properties=species:S:1:pos:R:3:forces:R:3 energy=-39.95233592480704 pbc="F F F"
C        2.89855144       1.74261099       0.94223506      -0.03542354       0.01530633      -0.03420668
H        3.25134771       2.67790027       1.79134335      -0.00680059      -0.06349852      -0.00370015
H        0.10000000       0.90508039       1.47737346       0.03137502      -0.00051044       0.00049767
H        2.59682369       0.10000000       0.10000000       0.01193508       0.02900418       0.05634923
H        1.84528444       0.11916202       1.59852765      -0.00108878       0.01969999      -0.01893979
5
Lattice="3.1849683100000004 0.0 0.0 0.0 3.4910974800000005 0.0 0.0 0.0 2.4359002000000003" Properties=species:S:1:pos:R:3:forces:R:3 energy=-39.94001597273183 pbc="F F F"
C        1.96590592       1.28071946       1.40439514       0.02849480      -0.01417194       0.00650679
H        0.10000000       0.85423915       2.01543599       0.03772813      -0.02502390      -0.00103840
H        1.75238787       3.39109748       0.81887862      -0.00557711      -0.04183590       0.00596893
H        3.08496831       0.13882358       0.10000000      -0.03621818       0.02561969       0.02211067
H        1.20879785       0.10000000       2.33590020      -0.02442846       0.05541237      -0.03354963
5
Lattice="1.34583158 0.0 0.0 0.0 2.00230801 0.0 0.0 0.0 5.512699929999999" Properties=species:S:1:pos:R:3:forces:R:3 energy=-40.046674363300056 pbc="F F F"
C        0.43537262       0.96193057       2.72587326       0.04344029      -0.11807280      -0.03476898
H        0.10000000       1.90230801       2.83656923      -0.03739186       0.11124817       0.00378692
H        0.42746999       0.17842890       5.37815266       0.03023844      -0.00284628       0.00188656
H        1.24583158       0.10000000       5.41269993      -0.02955509       0.00262461       0.00042173
H        0.96803108       0.66885163       0.10000000      -0.00673174       0.00704512       0.02867045
5
Lattice="4.640630739999999 0.0 0.0 0.0 2.69089088 0.0 0.0 0.0 1.6963059800000002" Properties=species:S:1:pos:R:3:forces:R:3 energy=-39.93809097005117 pbc="F F F"
C        2.50615600       1.08712357       0.14819595      -0.01308096       0.13029712      -0.01410795
H        0.10000000       1.42941575       0.80527141       0.03347585      -0.00509972      -0.00461589
H        4.54063074       2.24872989       0.75739443      -0.04497700       0.00754882       0.03199899
H        2.29482916       0.10000000       0.10000000      -0.01719856      -0.11174270       0.01581751
H        3.08816997       2.59089088       1.59630598       0.04178159      -0.02100381      -0.02909961
5
Lattice="3.5348594500000003 0.0 0.0 0.0 2.03484717 0.0 0.0 0.0 2.7119004700000002" Properties=species:S:1:pos:R:3:forces:R:3 energy=-39.91354315161428 pbc="F F F"
C        2.08776188       0.10000000       0.93697765       0.00590758       0.06183426       0.04026786
H        3.43485945       1.93484717       0.10000000      -0.02380167      -0.02656528       0.01560485
H        0.10000000       1.15099920       1.60941603       0.04927572      -0.02113159       0.01353257
H        1.17416124       0.68419003       2.27764206      -0.01276792       0.00700339      -0.04427467
H        3.27428772       1.49228036       2.61190047      -0.01861847      -0.02114259      -0.02512867
5
Lattice="3.52885932 0.0 0.0 0.0 2.50182402 0.0 0.0 0.0 1.5336277100000002" Properties=species:S:1:pos:R:3:forces:R:3 energy=-39.955438689116235 pbc="F F F"
C        2.31361428       1.31664716       1.43362771      -0.00295287      -0.03667722      -0.02870023
H        2.64190071       2.40182402       0.21782370      -0.14748458       0.25728549       0.04635282
H        0.10000000       0.64963897       1.29775262       0.04066059       0.01278848      -0.00412060
H        3.42885932       0.10000000       0.10000000      -0.02912251       0.02553707       0.03290105
H        2.91086250       1.90499701       0.14256626       0.13890178      -0.25893445      -0.04644033
5
Lattice="2.3467804800000005 0.0 0.0 0.0 4.908282719999999 0.0 0.0 0.0 3.0304332" Properties=species:S:1:pos:R:3:forces:R:3 energy=-39.89805382343768 pbc="F F F"
C        1.63107871       1.89505410       2.44958488       0.00572306      -0.00287529      -0.03323122
H        0.10000000       0.89963247       2.48804159       0.03825108      -0.03969740       0.02388495
H        0.66728047       0.10000000       2.93043320      -0.02900975       0.05847691      -0.03191786
H        1.47484820       4.80828272       1.86250243      -0.00298174      -0.01686715       0.00281714
H        2.24678048       1.70034555       0.10000000      -0.01198227       0.00095982       0.03844941
5
Lattice="1.9056163200000003 0.0 0.0 0.0 4.127152109999999 0.0 0.0 0.0 1.83730896" Properties=species:S:1:pos:R:3:forces:R:3 energy=-39.92164593401787 pbc="F F F"
C        0.10000000       2.06038052       1.73730896       0.04408550       0.00121302      -0.03575970
H        1.80561632       2.43990584       0.76462470      -0.00376914      -0.03503822       0.02555418
H        1.03824829       2.82923947       0.73173148      -0.00204587       0.02881555      -0.00071367
H        1.01324287       4.02715211       0.70507426      -0.02546823      -0.01324421       0.00029147
H        1.02248550       0.10000000       0.10000000      -0.01280790       0.01825208       0.01062653
5
Lattice="2.12044822 0.0 0.0 0.0 3.64359317 0.0 0.0 0.0 3.5976253700000003" Properties=species:S:1:pos:R:3:forces:R:3 energy=-39.902321860860305 pbc="F F F"
C        0.10000000       1.36660826       0.94420638       0.05561669       0.00333339       0.01603951
H        1.66404756       3.54359317       0.10000000      -0.01426836      -0.02311342       0.00731744
H        1.56644915       1.83178292       3.49762537      -0.01017331      -0.00415160      -0.01994778
H        2.02044822       0.78266356       1.25863983      -0.04772863      -0.02032351      -0.00818500
H        1.28365365       0.10000000       1.00873248       0.01655421       0.04425092       0.00477892
5
Lattice="2.89986777 0.0 0.0 0.0 2.2454930500000003 0.0 0.0 0.0 3.27901568" Properties=species:S:1:pos:R:3:forces:R:3 energy=-39.99300407310366 pbc="F F F"
C        2.03758117       1.90363670       2.51803429       0.00857156      -0.05908868      -0.04856171
H        1.78123520       2.14549305       0.10000000       0.00289162      -0.00388535       0.04020374
H        0.10000000       0.33227687       2.97145549       0.01780111       0.04310248       0.00719257
H        0.36450074       1.15993994       3.17901568      -0.00746295      -0.03488753      -0.01157547
H        2.79986777       0.10000000       2.11946070      -0.02179909       0.05476181       0.01273951
5
Lattice="2.90137377 0.0 0.0 0.0 3.31058164 0.0 0.0 0.0 2.61496772" Properties=species:S:1:pos:R:3:forces:R:3 energy=-39.97258701170419 pbc="F F F"
C        1.86948200       2.38688382       1.79278130      -0.06274337      -0.00817816      -0.00711904
H        0.10000000       2.65663406       2.45041839       0.06907886      -0.01632342      -0.01160428
H        0.71101473       3.21058164       0.10000000       0.03659559      -0.01200957       0.02993877
H        2.68908589       0.10000000       0.91198303      -0.01341022       0.03015661       0.01269865
H        2.80137377       2.59063246       2.51496772      -0.02951650       0.00635110      -0.02391272
5
Lattice="3.08726066 0.0 0.0 0.0 3.20460982 0.0 0.0 0.0 1.9800671200000002" Properties=species:S:1:pos:R:3:forces:R:3 energy=-39.89345875566582 pbc="F F F"
C        0.45295081       1.40499057       0.10000000      -0.02787004      -0.03208725      -0.05386523
H        0.23193694       0.10000000       1.88006712       0.00521544       0.02251632      -0.03338366
H        2.98726066       2.71996792       0.67120662      -0.01216881      -0.01190078      -0.00511144
H        0.71291354       1.78188241       1.02887800       0.03812984       0.04674665       0.11609084
H        0.10000000       3.10460982       1.54172864      -0.00331010      -0.02527890      -0.02373346
5
Lattice="3.89296072 0.0 0.0 0.0 1.6546547600000001 0.0 0.0 0.0 2.91528681" Properties=species:S:1:pos:R:3:forces:R:3 energy=-39.86442139826683 pbc="F F F"
C        1.66272872       0.10000000       0.66216608       0.22348649      -0.06608280       0.25231787
H        1.00630856       0.62333424       2.81528681      -0.01519186       0.00569883      -0.05475231
H        3.79296072       1.18491158       2.28918136      -0.00817059      -0.00080815      -0.01396652
H        0.10000000       1.55465476       1.50528592       0.03038457      -0.02653243       0.01717872
H        1.01596563       0.30875796       0.10000000      -0.23051130       0.08772451      -0.20077945
5
Lattice="3.40955987 0.0 0.0 0.0 3.2654819400000004 0.0 0.0 0.0 2.8415634400000003" Properties=species:S:1:pos:R:3:forces:R:3 energy=-39.87237174064359 pbc="F F F"
C        2.40460590       1.83988530       2.21810422      -0.03079297       0.03530394      -0.00666076
H        1.37183848       3.16548194       2.61809808       0.03502761      -0.06414530      -0.00065213
H        2.56514020       2.92964137       0.10000000      -0.00280962      -0.02439193       0.02652608
H        0.10000000       1.19639975       2.58201234       0.03115558       0.00949998      -0.00831970
H        3.30955987       0.10000000       2.74156344      -0.03257983       0.04372800      -0.01089515
5
Lattice="3.90918593 0.0 0.0 0.0 3.53216472 0.0 0.0 0.0 2.02677378" Properties=species:S:1:pos:R:3:forces:R:3 energy=-39.890173820931395 pbc="F F F"
C        1.49400492       1.76693784       0.10000000      -0.02142484       0.02610174       0.02467788
H        0.72948024       0.10000000       1.32463608       0.00959206       0.06646039       0.01104010
H        3.80918593       3.10419106       0.70483281      -0.02316459      -0.01330547      -0.00217452
H        0.10000000       3.43216472       0.13684052       0.03026076      -0.03947349       0.00425360
H        0.78204993       1.41135855       1.92677378       0.00473796      -0.03978392      -0.03779736
5
Lattice="1.3251413200000002 0.0 0.0 0.0 2.43706798 0.0 0.0 0.0 3.24198932" Properties=species:S:1:pos:R:3:forces:R:3 energy=-39.925087433551674 pbc="F F F"
C        0.88165718       0.67404256       1.65385934       0.52494815      -0.24055358       0.26083487
H        0.26902250       0.93901368       1.27580047      -0.54973063       0.19456559      -0.26751190
H        1.22514132       0.29668576       0.10000000       0.00861790       0.00450468       0.08050281
H        0.10000000       2.33706798       0.40226924       0.02205579       0.00002512       0.01786949
H        1.09435037       0.10000000       3.14198932      -0.00589247       0.04145194      -0.09170125
5
Lattice="1.23744256 0.0 0.0 0.0 3.5210901000000003 0.0 0.0 0.0 4.407341049999999" Properties=species:S:1:pos:R:3:forces:R:3 energy=-39.98204489758561 pbc="F F F"
C        0.10000000       1.44347464       2.54096159       0.04044467       0.07206996      -0.00906823
H        0.31343599       0.10000000       0.10000000       0.04794964       0.01379932       0.01838330
H        1.13744256       2.68093933       1.63310105      -0.03714413      -0.04525542       0.03200188
H        0.32139019       3.42109010       4.30734105      -0.00345773      -0.02444799      -0.02002109
H        1.09410267       0.36094841       0.42863264      -0.04779120      -0.01616397      -0.02129442
5
Lattice="2.55158289 0.0 0.0 0.0 3.69415847 0.0 0.0 0.0 2.9503511500000004" Properties=species:S:1:pos:R:3:forces:R:3 energy=-40.00791024662939 pbc="F F F"
C        2.09626213       1.86522480       0.31200462      -0.02253352       0.09078355       0.00426792
H        0.10000000       3.20312302       0.10000000       0.03143274      -0.02484019       0.00283672
H        2.45158289       3.59415847       0.51571723      -0.00969755      -0.06757232      -0.00605016
H        1.06474624       0.10000000       2.43468365       0.03455562       0.04173796       0.02626045
H        1.58645063       0.71921902       2.85035115      -0.03375707      -0.04011196      -0.02731199
5
Lattice="4.08175661 0.0 0.0 0.0 3.29161053 0.0 0.0 0.0 2.6482281500000004" Properties=species:S:1:pos:R:3:forces:R:3 energy=-40.06059581684923 pbc="F F F"
C        2.85737379       2.16367244       1.27465522       0.02074127       0.00036045       0.01500364
H        0.10000000       2.51204078       0.39254340       0.01316248       0.01341013      -0.00800246
H        3.37692296       3.19161053       1.68279586      -0.00769988      -0.02683198      -0.00311415
H        3.98175661       0.10000000       2.54822815      -0.01082762       0.02590254      -0.01192159
H        0.67527008       2.99524298       0.10000000      -0.01537429      -0.01284167       0.00803204
5
Lattice="1.5384852200000003 0.0 0.0 0.0 2.83705518 0.0 0.0 0.0 2.76945398" Properties=species:S:1:pos:R:3:forces:R:3 energy=-39.94470923633493 pbc="F F F"
C        0.20211936       0.10000000       0.90437812      -0.05782293      -0.13443124       0.29152306
H        0.10000000       0.67105138       0.18016108      -0.17831184       0.24122981      -0.13490441
H        0.78797843       2.73705518       2.09409038       0.02970686      -0.05989456       0.02395786
H        0.70487924       0.19818666       0.10000000       0.23974641      -0.09971885      -0.14758566
H        1.43848522       1.43897738       2.66945398      -0.03332072       0.05281286      -0.03299450
5
Lattice="5.354078049999999 0.0 0.0 0.0 0.7507408199999999 0.0 0.0 0.0 3.53685038" Properties=species:S:1:pos:R:3:forces:R:3 energy=-39.90794442050831 pbc="F F F"
C        2.56459841       0.10678083       2.04705061       0.05771412       0.00495645       0.01576013
H        4.45121370       0.45724461       3.43685038      -0.03294738      -0.00576980      -0.02514330
H        0.43720100       0.65074082       0.10000000      -0.02562533      -0.02513584       0.06267262
H        0.10000000       0.31466052       0.93741308       0.02486814       0.02571368      -0.06278010
H        5.25407805       0.10000000       1.08969894      -0.02400988       0.00023465       0.00949314
5
Lattice="4.34127526 0.0 0.0 0.0 1.8372895800000002 0.0 0.0 0.0 2.80804053" Properties=species:S:1:pos:R:3:forces:R:3 energy=-39.84055080849569 pbc="F F F"
C        2.32006718       1.67486778       1.83209748      -0.02618606      -0.04217645      -0.00471776
H        4.24127526       0.74817803       1.62597741      -0.04098444       0.00720765       0.00254658
H        1.23658866       0.10000000       2.70804053       0.01372710       0.03805749      -0.00851740
H        0.10000000       1.73728958       2.08671061       0.04037564      -0.02479422      -0.00660213
H        1.12537495       0.36187169       0.10000000       0.01306723       0.02170741       0.01729183
5
Lattice="2.9770643100000003 0.0 0.0 0.0 2.46550533 0.0 0.0 0.0 3.90495105" Properties=species:S:1:pos:R:3:forces:R:3 energy=-39.87370017238801 pbc="F F F"
C        0.55936097       2.36550533       2.14857336       0.03798793      -0.04779867      -0.03579557
H        0.10000000       0.10000000       3.25372921       0.00757990       0.02558099      -0.01474206
H        0.16479454       0.84888636       0.10000000       0.00603668       0.01243003       0.02444724
H        2.87706431       2.12905021       3.80495105      -0.01632890      -0.00241695      -0.01244711
H        1.47770158       2.04178221       1.16455231      -0.03527359       0.01220812       0.03854073
5
Lattice="3.7085901100000003 0.0 0.0 0.0 2.8754193200000002 0.0 0.0 0.0 2.05453427" Properties=species:S:1:pos:R:3:forces:R:3 energy=-39.94322738863477 pbc="F F F"
C        2.48535109       2.77541932       0.14087202       0.03894336      -0.07142671       0.00153444
H        3.60859011       1.82737963       0.34607902      -0.05100598       0.04501159       0.00156628
H        0.10000000       2.28152897       0.74389350       0.04249744       0.02199728       0.06075602